 &FCI NORB=  11,NELEC=10,MS2=0,
  ORBSYM=1,1,1,1,1,1,1,1,1,1,1,
  ISYM=1,
 &END
 5.355914602008878    1    1    1    1
 -0.5271543149027547    1    1    2    1
 1.249794589884282    1    1    2    2
 -0.1068053762962787    1    1    3    1
 0.09836785714116077    1    1    3    2
 1.017163426970273    1    1    3    3
 1.228669114292188    1    1    4    4
 1.228669114292189    1    1    5    5
 0.1113514155726435    1    1    6    1
 -0.1805265787113914    1    1    6    2
 0.3070835598408171    1    1    6    3
 0.5548639269087147    1    1    6    6
 0.05216010248523305    1    1    7    1
 -0.07742806725388392    1    1    7    2
 0.2063068914046307    1    1    7    3
 0.2235561938188711    1    1    7    6
 0.5437478334328653    1    1    7    7
 0.2882967152779218    1    1    8    4
 -0.5126070049978253    1    1    8    5
 1.108945486055482    1    1    8    8
 -0.5126070049978251    1    1    9    4
 -0.2882967152779219    1    1    9    5
 1.108945486055483    1    1    9    9
 0.2593505670303674    1    1   10    1
 -0.2383895193746084    1    1   10    2
 -0.4491789349426277    1    1   10    3
 -0.1691389396142644    1    1   10    6
 -0.196543549778893    1    1   10    7
 1.063612766965647    1    1   10   10
 0.4027529597768597    1    1   11    1
 -0.422126735009379    1    1   11    2
 0.1237164824526395    1    1   11    3
 0.2703203593980464    1    1   11    6
 0.1612980396446484    1    1   11    7
 -0.02091010556340339    1    1   11   10
 1.012383875358287    1    1   11   11
 -0.5271543149027546    2    1    1    1
 0.08433675432047325    2    1    2    1
 -0.02197691087562169    2    1    2    2
 0.01479532335977643    2    1    3    1
 -0.006390592541124106    2    1    3    2
 -0.01182829473627253    2    1    3    3
 -0.01557050473733685    2    1    4    4
 -0.01557050473733687    2    1    5    5
 -0.01944111175884593    2    1    6    1
 0.003950284263944023    2    1    6    2
 -0.005322590151659716    2    1    6    3
 -0.004092084398809597    2    1    6    6
 -0.009760747448324329    2    1    7    1
 0.001813046674575333    2    1    7    2
 -0.005856326645832099    2    1    7    3
 -0.003707218191319916    2    1    7    6
 -0.00284908409734695    2    1    7    7
 -0.008939676056051895    2    1    8    4
 0.01589522296265465    2    1    8    5
 -0.02161837208419177    2    1    8    8
 0.01589522296265464    2    1    9    4
 0.008939676056051896    2    1    9    5
 -0.02161837208419178    2    1    9    9
 -0.03893467342884012    2    1   10    1
 0.01168722624992441    2    1   10    2
 0.01555111616871836    2    1   10    3
 0.005072496482668206    2    1   10    6
 0.0063280708056196    2    1   10    7
 -0.02282845558255654    2    1   10   10
 -0.06660385124698738    2    1   11    1
 0.01731739690780967    2    1   11    2
 -0.002894240799103076    2    1   11    3
 -0.007425310845387545    2    1   11    6
 -0.005413773076472144    2    1   11    7
 -0.0006763290238427851    2    1   11   10
 -0.01780238137779926    2    1   11   11
 1.249794589884282    2    2    1    1
 -0.0219769108756217    2    2    2    1
 0.8757067526203229    2    2    2    2
 -0.01014071911997657    2    2    3    1
 0.01516504507045237    2    2    3    2
 0.7497007594574596    2    2    3    3
 0.8517877358866079    2    2    4    4
 0.8517877358866084    2    2    5    5
 0.001028062869783733    2    2    6    1
 -0.1018889976698662    2    2    6    2
 0.1645227891428223    2    2    6    3
 0.463699712263225    2    2    6    6
 -0.0009652779739592288    2    2    7    1
 -0.03458945606615273    2    2    7    2
 0.07071213818615599    2    2    7    3
 0.1442444754273561    2    2    7    6
 0.4948626134520253    2    2    7    7
 0.1114619316486447    2    2    8    4
 -0.1981852859426583    2    2    8    5
 0.7113693615539511    2    2    8    8
 -0.1981852859426581    2    2    9    4
 -0.1114619316486447    2    2    9    5
 0.7113693615539514    2    2    9    9
 0.01655495709847953    2    2   10    1
 -0.08458116200878275    2    2   10    2
 -0.1716229104762978    2    2   10    3
 -0.06192364237041642    2    2   10    6
 -0.07518498157642813    2    2   10    7
 0.6806032281944115    2    2   10   10
 0.01228255916516103    2    2   11    1
 -0.1521592157413937    2    2   11    2
 0.03691961527189241    2    2   11    3
 0.1291848033064002    2    2   11    6
 0.05700864608572931    2    2   11    7
 -0.001967117249078489    2    2   11   10
 0.7135377597806525    2    2   11   11
 -0.1068053762962788    3    1    1    1
 0.01479532335977643    3    1    2    1
 -0.01014071911997656    3    1    2    2
 0.02888311353039477    3    1    3    1
 0.02684931229633464    3    1    3    2
 0.005343724846811053    3    1    3    3
 -0.002904013809458972    3    1    4    4
 -0.002904013809458976    3    1    5    5
 0.01187530515141972    3    1    6    1
 0.01603684093290201    3    1    6    2
 -5.894849481164486e-05    3    1    6    3
 -0.008565298571131358    3    1    6    6
 0.01305968393521003    3    1    7    1
 0.01076127142588157    3    1    7    2
 0.003373733144462905    3    1    7    3
 -0.004540828970097643    3    1    7    6
 -0.008385531014996922    3    1    7    7
 -0.001711819968585593    3    1    8    4
 0.003043707613339331    3    1    8    5
 -0.0041379182334422    3    1    8    8
 0.00304370761333933    3    1    9    4
 0.001711819968585593    3    1    9    5
 -0.004137918233442201    3    1    9    9
 -0.03950155674017669    3    1   10    1
 -0.01301757111744829    3    1   10    2
 -0.007508947911223514    3    1   10    3
 0.0005891440928501194    3    1   10    6
 -0.002656159985716256    3    1   10    7
 0.01807844028624281    3    1   10   10
 0.006071261908099605    3    1   11    1
 0.0135299361333492    3    1   11    2
 -0.01179166557646695    3    1   11    3
 -0.01194132176758317    3    1   11    6
 -0.00926936147554094    3    1   11    7
 0.009658988398486012    3    1   11   10
 -0.023774803241125    3    1   11   11
 0.09836785714116082    3    2    1    1
 -0.006390592541124103    3    2    2    1
 0.01516504507045234    3    2    2    2
 0.02684931229633464    3    2    3    1
 0.1468289831456918    3    2    3    2
 0.03515968219846288    3    2    3    3
 0.049783223577502    3    2    4    4
 0.04978322357750203    3    2    5    5
 0.0174931855446006    3    2    6    1
 0.04759115217799402    3    2    6    2
 0.04761475583893648    3    2    6    3
 -0.05161107109217289    3    2    6    6
 0.01552371176250114    3    2    7    1
 0.01738021802049725    3    2    7    2
 0.0673659927096727    3    2    7    3
 -0.0202732793935614    3    2    7    6
 -0.1001565586373289    3    2    7    7
 0.01251017917194649    3    2    8    4
 -0.02224376878916445    3    2    8    5
 0.03602886765977566    3    2    8    8
 -0.02224376878916444    3    2    9    4
 -0.0125101791719465    3    2    9    5
 0.03602886765977568    3    2    9    9
 -0.02841913609632087    3    2   10    1
 -0.04208772937292375    3    2   10    2
 -0.02711155478430892    3    2   10    3
 0.006801808185793158    3    2   10    6
 -0.02596431771786952    3    2   10    7
 0.1326060819312372    3    2   10   10
 0.02120875036231528    3    2   11    1
 -0.001115321914680111    3    2   11    2
 -0.01550211556052749    3    2   11    3
 -0.00965307058102015    3    2   11    6
 -0.01057890130220322    3    2   11    7
 0.03854399547036782    3    2   11   10
 -0.05834354505392734    3    2   11   11
 1.017163426970273    3    3    1    1
 -0.01182829473627257    3    3    2    1
 0.7497007594574598    3    3    2    2
 0.005343724846811045    3    3    3    1
 0.03515968219846286    3    3    3    2
 0.731653036892233    3    3    3    3
 0.7131186510107558    3    3    4    4
 0.7131186510107562    3    3    5    5
 0.00676173349468603    3    3    6    1
 -0.04538895450427743    3    3    6    2
 0.1207063578585599    3    3    6    3
 0.4666119765250889    3    3    6    6
 0.00545031926524685    3    3    7    1
 0.01192421359334344    3    3    7    2
 0.02540621733984617    3    3    7    3
 0.1456579058468584    3    3    7    6
 0.5438469466421264    3    3    7    7
 0.0815694101400604    3    3    8    4
 -0.1450347812358086    3    3    8    5
 0.6139576076499982    3    3    8    8
 -0.1450347812358085    3    3    9    4
 -0.08156941014006037    3    3    9    5
 0.6139576076499983    3    3    9    9
 -0.003504788566936965    3    3   10    1
 -0.07676892373538791    3    3   10    2
 -0.1526619689589361    3    3   10    3
 -0.05034901870692097    3    3   10    6
 -0.05755076775217108    3    3   10    7
 0.6563311226293977    3    3   10   10
 0.0127819425147179    3    3   11    1
 -0.1060421145954883    3    3   11    2
 0.02209892464705172    3    3   11    3
 0.08161429820225334    3    3   11    6
 0.0299165122327992    3    3   11    7
 -0.006226539008289225    3    3   11   10
 0.6178925550392682    3    3   11   11
 0.038887401662053    4    1    4    1
 0.039811857435555    4    1    4    2
 0.00771546244708606    4    1    4    3
 -0.006880705047021293    4    1    6    4 -0.00450307446897854    4    1    7    4
 0.02264824193576299    4    1    8    1
 0.01161562008787572    4    1    8    2
 0.002703474170774006    4    1    8    3
 -0.003394051415503667    4    1    8    6
 -0.0009326971851175088    4    1    8    7
 -0.04026978752069985    4    1    9    1
 -0.02065319481249923    4    1    9    2
 -0.004806921911800115    4    1    9    3
 0.006034805249975735    4    1    9    6
 0.001658385563540283    4    1    9    7
 -0.01253274850212623    4    1   10    4
 -0.007881955121632171    4    1   10    8
 0.01401453847482164    4    1   10    9
 -0.01692768632435558    4    1   11    4
 -0.01234188824382224    4    1   11    8
 0.02194453850292647    4    1   11    9
 0.039811857435555    4    2    4    1
 0.1690390912923419    4    2    4    2
 0.02630106124315665    4    2    4    3
 -0.02237275140313284    4    2    6    4
 -0.02177187530119807    4    2    7    4
 0.02107835420162586    4    2    8    1
 0.02348976445264455    4    2    8    2
 0.007262496957801852    4    2    8    3
 -0.0146411325506966    4    2    8    6
 0.0008497443599052315    4    2    8    7
 -0.03747844302409992    4    2    9    1
 -0.04176605963951686    4    2    9    2
 -0.01291310867262497    4    2    9    3
 0.02603271806046661    4    2    9    6
 -0.001510890996190877    4    2    9    7
 -0.02120288159259146    4    2   10    4
 -0.02949738166880478    4    2   10    8
 0.052447924902465    4    2   10    9
 -0.01630302951273516    4    2   11    4
 -0.05048805049026851    4    2   11    8
 0.08977045862297242    4    2   11    9
 0.007715462447086061    4    3    4    1
 0.02630106124315666    4    3    4    2
 0.03890468338751601    4    3    4    3
 0.01214155381460922    4    3    6    4
 0.008737640549337072    4    3    7    4
 0.004104427930705029    4    3    8    1
 0.005018421170523907    4    3    8    2
 0.004724800917549535    4    3    8    3
 0.002042387387930598    4    3    8    6
 0.003234204908174769    4    3    8    7
 -0.00729789275177791    4    3    9    1
 -0.008923021698530409    4    3    9    2
 -0.008400949158304619    4    3    9    3
 -0.003631474194782861    4    3    9    6
 -0.005750589596314063    4    3    9    7
 -0.01262745382762388    4    3   10    4
 -0.01644500574060173    4    3   10    8
 0.02924010123297948    4    3   10    9
 -0.002188405549940203    4    3   11    4
 -0.00147187405930651    4    3   11    8
 0.002617070931757784    4    3   11    9
 1.228669114292188    4    4    1    1
 -0.01557050473733683    4    4    2    1
 0.8517877358866079    4    4    2    2
 -0.002904013809458961    4    4    3    1
 0.04978322357750201    4    4    3    2
 0.7131186510107559    4    4    3    3
 0.9019865128995507    4    4    4    4
 0.8123981031997143    4    4    5    5
 0.002895728375641065    4    4    6    1
 -0.08921651263321426    4    4    6    2
 0.1614558005613604    4    4    6    3
 0.4347655007706605    4    4    6    6
 0.001354161805165238    4    4    7    1
 -0.0364728007333581    4    4    7    2
 0.08463792312404413    4    4    7    3
 0.1269972186813523    4    4    7    6
 0.4472704219317059    4    4    7    7
 0.120002491099173    4    4    8    4
 -0.1898561393900696    4    4    8    5
 0.7046668720303633    4    4    8    8
 -0.2133708581983836    4    4    9    4
 -0.1067775134320228    4    4    9    5
 -0.02679075648343893    4    4    9    8
 0.7372348093236117    4    4    9    9
 0.006729920649018667    4    4   10    1
 -0.09110735261234276    4    4   10    2
 -0.1652951425685891    4    4   10    3
 -0.05541456052504972    4    4   10    6
 -0.07691223674207445    4    4   10    7
 0.6849385295023793    4    4   10   10
 0.01075754475107681    4    4   11    1
 -0.1436260627928257    4    4   11    2
 0.03046715783536686    4    4   11    3
 0.1227904894649492    4    4   11    6
 0.04977124167575584    4    4   11    7
 0.01221982525668737    4    4   11   10
 0.6868139964198512    4    4   11   11
 0.03888740166205303    5    1    5    1
 0.03981185743555504    5    1    5    2
 0.007715462447086069    5    1    5    3
 -0.006880705047021297    5    1    6    5
 -0.004503074468978545    5    1    7    5
 -0.04026978752069986    5    1    8    1
 -0.02065319481249924    5    1    8    2
 -0.004806921911800115    5    1    8    3
 0.006034805249975735    5    1    8    6
 0.001658385563540284    5    1    8    7
 -0.02264824193576299    5    1    9    1
 -0.01161562008787572    5    1    9    2
 -0.002703474170774005    5    1    9    3
 0.003394051415503666    5    1    9    6
 0.0009326971851175097    5    1    9    7
 -0.01253274850212625    5    1   10    5
 0.01401453847482165    5    1   10    8
 0.007881955121632174    5    1   10    9
 -0.01692768632435561    5    1   11    5
 0.02194453850292649    5    1   11    8
 0.01234188824382225    5    1   11    9
 0.03981185743555504    5    2    5    1
 0.169039091292342    5    2    5    2
 0.02630106124315668    5    2    5    3
 -0.02237275140313286    5    2    6    5
 -0.02177187530119807    5    2    7    5
 -0.03747844302409994    5    2    8    1
 -0.04176605963951682    5    2    8    2
 -0.01291310867262496    5    2    8    3
 0.02603271806046659    5    2    8    6
 -0.001510890996190872    5    2    8    7
 -0.02107835420162587    5    2    9    1
 -0.02348976445264455    5    2    9    2
 -0.007262496957801855    5    2    9    3
 0.0146411325506966    5    2    9    6
 -0.0008497443599052268    5    2    9    7
 -0.02120288159259147    5    2   10    5
 0.05244792490246493    5    2   10    8
 0.02949738166880479    5    2   10    9
 -0.01630302951273516    5    2   11    5
 0.0897704586229723    5    2   11    8
 0.05048805049026853    5    2   11    9
 0.007715462447086068    5    3    5    1
 0.02630106124315667    5    3    5    2
 0.03890468338751602    5    3    5    3
 0.01214155381460923    5    3    6    5
 0.008737640549337077    5    3    7    5
 -0.007297892751777911    5    3    8    1
 -0.008923021698530403    5    3    8    2
 -0.008400949158304614    5    3    8    3
 -0.003631474194782861    5    3    8    6
 -0.005750589596314058    5    3    8    7
 -0.004104427930705029    5    3    9    1
 -0.005018421170523906    5    3    9    2
 -0.004724800917549536    5    3    9    3
 -0.002042387387930602    5    3    9    6
 -0.003234204908174768    5    3    9    7
 -0.0126274538276239    5    3   10    5
 0.02924010123297948    5    3   10    8
 0.01644500574060174    5    3   10    9
 -0.002188405549940194    5    3   11    5
 0.002617070931757782    5    3   11    8
 0.001471874059306505    5    3   11    9
 0.04479420484991845    5    4    5    4
 -0.0117573594041571    5    4    8    4
 0.006612488833575105    5    4    8    5
 -0.02679075648343894    5    4    8    8
 -0.006612488833575061    5    4    9    4
 -0.0117573594041571    5    4    9    5
 0.01628396864662425    5    4    9    8
 0.02679075648343903    5    4    9    9
 1.228669114292189    5    5    1    1
 -0.01557050473733691    5    5    2    1
 0.8517877358866085    5    5    2    2
 -0.002904013809458974    5    5    3    1
 0.04978322357750207    5    5    3    2
 0.7131186510107562    5    5    3    3
 0.8123981031997145    5    5    4    4
 0.9019865128995518    5    5    5    5
 0.002895728375641056    5    5    6    1
 -0.08921651263321437    5    5    6    2
 0.1614558005613605    5    5    6    3
 0.4347655007706608    5    5    6    6
 0.001354161805165272    5    5    7    1
 -0.03647280073335804    5    5    7    2
 0.08463792312404424    5    5    7    3
 0.1269972186813522    5    5    7    6
 0.4472704219317062    5    5    7    7
 0.106777513432023    5    5    8    4
 -0.2133708581983839    5    5    8    5
 0.7372348093236122    5    5    8    8
 -0.1898561393900695    5    5    9    4
 -0.1200024910991731    5    5    9    5
 0.02679075648343896    5    5    9    8
 0.7046668720303642    5    5    9    9
 0.006729920649018746    5    5   10    1
 -0.09110735261234279    5    5   10    2
 -0.1652951425685892    5    5   10    3
 -0.05541456052504983    5    5   10    6
 -0.07691223674207459    5    5   10    7
 0.6849385295023798    5    5   10   10
 0.01075754475107705    5    5   11    1
 -0.1436260627928257    5    5   11    2
 0.03046715783536698    5    5   11    3
 0.1227904894649494    5    5   11    6
 0.04977124167575597    5    5   11    7
 0.01221982525668661    5    5   11   10
 0.6868139964198503    5    5   11   11
 0.1113514155726435    6    1    1    1
 -0.01944111175884593    6    1    2    1
 0.001028062869783731    6    1    2    2
 0.01187530515141972    6    1    3    1
 0.01749318554460059    6    1    3    2
 0.006761733494686036    6    1    3    3
 0.002895728375641067    6    1    4    4
 0.002895728375641071    6    1    5    5
 0.01337442671401639    6    1    6    1
 0.008024437913941501    6    1    6    2
 0.001558432744061508    6    1    6    3
 -0.003608089296810405    6    1    6    6
 0.01084336475277021    6    1    7    1
 0.005681815445330291    6    1    7    2
 0.003722835620263864    6    1    7    3
 -0.001470887341158379    6    1    7    6
 -0.003870412102233176    6    1    7    7
 0.001757793399147819    6    1    8    4
 -0.003125450835863598    6    1    8    5
 0.00419849732083109    6    1    8    8
 -0.003125450835863597    6    1    9    4
 -0.00175779339914782    6    1    9    5
 0.004198497320831092    6    1    9    9
 -0.01003278207391281    6    1   10    1
 -0.01127031720596142    6    1   10    2
 -0.009271323753805703    6    1   10    3
 -0.001257910654139737    6    1   10    6
 -0.003510351645479281    6    1   10    7
 0.01758827640111305    6    1   10   10
 0.02567955201385453    6    1   11    1
 0.002305627844096957    6    1   11    2
 -0.005926030214355944    6    1   11    3
 -0.00461311638017345    6    1   11    6
 -0.003652265494702993    6    1   11    7
 0.005810367365964777    6    1   11   10
 -0.008163338858754997    6    1   11   11
 -0.1805265787113916    6    2    1    1
 0.003950284263944016    6    2    2    1
 -0.1018889976698663    6    2    2    2
 0.01603684093290201    6    2    3    1
 0.04759115217799401    6    2    3    2
 -0.04538895450427738    6    2    3    3
 -0.08921651263321424    6    2    4    4
 -0.08921651263321428    6    2    5    5
 0.008024437913941505    6    2    6    1
 0.05027383161329379    6    2    6    2
 -0.03281156047107851    6    2    6    3
 -0.02571777652227306    6    2    6    6
 0.00778584860717906    6    2    7    1
 0.02982469614929916    6    2    7    2
 -0.01745852996223855    6    2    7    3
 -0.01794870899839178    6    2    7    6
 -0.01524589881291206    6    2    7    7
 -0.02280017428532126    6    2    8    4
 0.04053993137785156    6    2    8    5
 -0.06493352672160278    6    2    8    8
 0.04053993137785155    6    2    9    4
 0.02280017428532126    6    2    9    5
 -0.06493352672160281    6    2    9    9
 -0.01895877737426143    6    2   10    1
 -0.0015148476570129    6    2   10    2
 0.02399317223572513    6    2   10    3
 0.01631539971439475    6    2   10    6
 0.01268668047276902    6    2   10    7
 -0.01829449349002089    6    2   10   10
 0.006321323627736938    6    2   11    1
 0.0441717606897051    6    2   11    2
 -0.02156166444560252    6    2   11    3
 -0.04076798080261103    6    2   11    6
 -0.02744784317375041    6    2   11    7
 0.01388931251222413    6    2   11   10
 -0.09190528591637087    6    2   11   11
 0.3070835598408171    6    3    1    1
 -0.005322590151659726    6    3    2    1
 0.1645227891428223    6    3    2    2
 -5.894849481164526e-05    6    3    3    1
 0.04761475583893649    6    3    3    2
 0.1207063578585599    6    3    3    3
 0.1614558005613604    6    3    4    4
 0.1614558005613606    6    3    5    5
 0.001558432744061504    6    3    6    1
 -0.03281156047107851    6    3    6    2
 0.1042283062733898    6    3    6    3
 -0.01281860228265239    6    3    6    6
 0.001045040594903424    6    3    7    1
 -0.02438538186032278    6    3    7    2
 0.08248964452597908    6    3    7    3
 0.01648452543594936    6    3    7    6
 -0.05743908531285213    6    3    7    7
 0.03598343529528984    6    3    8    4
 -0.06398047573476509    6    3    8    5
 0.1228952606938838    6    3    8    8
 -0.06398047573476506    6    3    9    4
 -0.03598343529528984    6    3    9    5
 0.1228952606938838    6    3    9    9
 0.001406544673596058    6    3   10    1
 -0.02352602688050719    6    3   10    2
 -0.05230919827317376    6    3   10    3
 -0.01627434908402129    6    3   10    6
 -0.04297808093238102    6    3   10    7
 0.1615614637215527    6    3   10   10
 0.004041170727627209    6    3   11    1
 -0.05739530143956336    6    3   11    2
 0.01512463490331398    6    3   11    3
 0.05934865152366137    6    3   11    6
 0.03353910762497083    6    3   11    7
 0.005090249728058039    6    3   11   10
 0.09098146921877624    6    3   11   11
 -0.006880705047021292    6    4    4    1
 -0.02237275140313284    6    4    4    2
 0.01214155381460922    6    4    4    3
 0.01365545122782957    6    4    6    4
 0.008653534318815891    6    4    7    4
 -0.003680066068375484    6    4    8    1
 -0.006586249247252996    6    4    8    2
 0.001990516518259786    6    4    8    3
 0.002883086157947377    6    4    8    6
 0.002862589048782262    6    4    8    7
 0.006543354625756097    6    4    9    1
 0.01171070401391455    6    4    9    2
 -0.003539245009573605    6    4    9    3
 -0.005126281647542831    6    4    9    6
 -0.00508983668933332    6    4    9    7
 0.0007601262505596793    6    4   10    4
 -0.002399051654821184    6    4   10    8
 0.004265642369277256    6    4   10    9
 0.01171873644843114    6    4   11    4
 0.007276675249917493    6    4   11    8
 -0.01293831843559566    6    4   11    9
 -0.006880705047021299    6    5    5    1
 -0.02237275140313286    6    5    5    2
 0.01214155381460923    6    5    5    3
 0.01365545122782958    6    5    6    5
 0.0086535343188159    6    5    7    5
 0.006543354625756098    6    5    8    1
 0.01171070401391455    6    5    8    2
 -0.003539245009573605    6    5    8    3
 -0.005126281647542832    6    5    8    6
 -0.005089836689333321    6    5    8    7
 0.003680066068375485    6    5    9    1
 0.006586249247253    6    5    9    2
 -0.001990516518259787    6    5    9    3
 -0.002883086157947378    6    5    9    6
 -0.002862589048782264    6    5    9    7
 0.0007601262505596777    6    5   10    5
 0.004265642369277249    6    5   10    8
 0.002399051654821186    6    5   10    9
 0.01171873644843116    6    5   11    5
 -0.01293831843559567    6    5   11    8
 -0.007276675249917495    6    5   11    9
 0.5548639269087147    6    6    1    1
 -0.004092084398809604    6    6    2    1
 0.4636997122632252    6    6    2    2
 -0.008565298571131367    6    6    3    1
 -0.05161107109217289    6    6    3    2
 0.4666119765250886    6    6    3    3
 0.4347655007706603    6    6    4    4
 0.4347655007706606    6    6    5    5
 -0.003608089296810404    6    6    6    1
 -0.02571777652227316    6    6    6    2
 -0.01281860228265252    6    6    6    3
 0.4522155291953663    6    6    6    6
 -0.003669021238222482    6    6    7    1
 0.007631999832862862    6    6    7    2
 -0.04026800294136643    6    6    7    3
 0.07410403854116367    6    6    7    6
 0.4996751363018224    6    6    7    7
 0.03114971377022681    6    6    8    4
 -0.05538585990097922    6    6    8    5
 0.397925119799081    6    6    8    8
 -0.05538585990097919    6    6    9    4
 -0.03114971377022676    6    6    9    5
 0.3979251197990811    6    6    9    9
 0.0104407768100398    6    6   10    1
 -0.02128409597722862    6    6   10    2
 -0.05975171304074645    6    6   10    3
 -0.02896845208191583    6    6   10    6
 -0.002653834062428241    6    6   10    7
 0.3649474802270473    6    6   10   10
 -0.001785431559387641    6    6   11    1
 -0.04619982382988658    6    6   11    2
 0.0246636476320231    6    6   11    3
 0.009748464081679101    6    6   11    6
 0.008019158513399596    6    6   11    7
 -0.02112445117157855    6    6   11   10
 0.4553709116276602    6    6   11   11
 0.05216010248523305    7    1    1    1
 -0.009760747448324327    7    1    2    1
 -0.0009652779739592369    7    1    2    2
 0.01305968393521002    7    1    3    1
 0.01552371176250114    7    1    3    2
 0.005450319265246838    7    1    3    3
 0.001354161805165256    7    1    4    4
 0.001354161805165258    7    1    5    5
 0.01084336475277021    7    1    6    1
 0.007785848607179064    7    1    6    2
 0.001045040594903424    7    1    6    3
 -0.003669021238222475    7    1    6    6
 0.009444344362411407    7    1    7    1
 0.005471496680665084    7    1    7    2
 0.002903357828230336    7    1    7    3
 -0.001623438880346334    7    1    7    6
 -0.003693930419711819    7    1    7    7
 0.000793859239429729    7    1    8    4
 -0.001411524257991048    7    1    8    5
 0.00198670301711404    7    1    8    8
 -0.001411524257991047    7    1    9    4
 -0.0007938592394297292    7    1    9    5
 0.001986703017114041    7    1    9    9
 -0.01389055121956234    7    1   10    1
 -0.00939166894772725    7    1   10    2
 -0.007307178842822393    7    1   10    3
 -0.000777246328481668    7    1   10    6
 -0.002731818398909351    7    1   10    7
 0.01438926378951031    7    1   10   10
 0.01773063392584865    7    1   11    1
 0.003844556075053664    7    1   11    2
 -0.005790074904267192    7    1   11    3
 -0.004942410170834531    7    1   11    6
 -0.003906752244801925    7    1   11    7
 0.005275554860059244    7    1   11   10
 -0.009129333083220925    7    1   11   11
 -0.07742806725388388    7    2    1    1
 0.001813046674575335    7    2    2    1
 -0.03458945606615269    7    2    2    2
 0.01076127142588157    7    2    3    1
 0.01738021802049725    7    2    3    2
 0.01192421359334341    7    2    3    3
 -0.03647280073335806    7    2    4    4
 -0.03647280073335808    7    2    5    5
 0.005681815445330292    7    2    6    1
 0.02982469614929913    7    2    6    2
 -0.02438538186032277    7    2    6    3
 0.007631999832862851    7    2    6    6
 0.005471496680665085    7    2    7    1
 0.02996589139355555    7    2    7    2
 -0.03483332173721303    7    2    7    3
 0.01200130606531653    7    2    7    6
 0.05425800788249309    7    2    7    7
 -0.009271649914569429    7    2    8    4
 0.01648549026829563    7    2    8    5
 -0.02790166261841803    7    2    8    8
 0.01648549026829562    7    2    9    4
 0.009271649914569429    7    2    9    5
 -0.02790166261841804    7    2    9    9
 -0.01267844361042183    7    2   10    1
 -0.006402160462533366    7    2   10    2
 0.001721210685560032    7    2   10    3
 0.006732474859823327    7    2   10    6
 0.01029669240774694    7    2   10    7
 0.002120037126478489    7    2   10   10
 0.005058104396983863    7    2   11    1
 0.02256478142950401    7    2   11    2
 -0.0132902673425042    7    2   11    3
 -0.02613820872145369    7    2   11    6
 -0.01875175449821663    7    2   11    7
 0.005058290130982671    7    2   11   10
 -0.03536713219886051    7    2   11   11
 0.2063068914046305    7    3    1    1
 -0.005856326645832102    7    3    2    1
 0.07071213818615599    7    3    2    2
 0.003373733144462904    7    3    3    1
 0.06736599270967268    7    3    3    2
 0.02540621733984616    7    3    3    3
 0.08463792312404415    7    3    4    4
 0.08463792312404422    7    3    5    5
 0.003722835620263872    7    3    6    1
 -0.01745852996223853    7    3    6    2
 0.08248964452597907    7    3    6    3
 -0.04026800294136638    7    3    6    6
 0.002903357828230332    7    3    7    1
 -0.03483332173721303    7    3    7    2
 0.1127573558445582    7    3    7    3
 -0.03705332837013534    7    3    7    6
 -0.1607256220934165    7    3    7    7
 0.0253993332803518    7    3    8    4
 -0.04516137531858935    7    3    8    5
 0.06399529933944775    7    3    8    8
 -0.04516137531858934    7    3    9    4
 -0.0253993332803518    7    3    9    5
 0.06399529933944778    7    3    9    9
 -0.002252767504234075    7    3   10    1
 -0.02449990761408457    7    3   10    2
 -0.03608087733600248    7    3   10    3
 -0.01654146229224175    7    3   10    6
 -0.04222428425696573    7    3   10    7
 0.09571429983154564    7    3   10   10
 0.006510341501895575    7    3   11    1
 -0.03962864711458646    7    3   11    2
 0.009182937261386217    7    3   11    3
 0.03936345693770921    7    3   11    6
 0.0322766174452867    7    3   11    7
 0.0117834532582304    7    3   11   10
 0.0208107673353301    7    3   11   11
 -0.004503074468978539    7    4    4    1
 -0.02177187530119807    7    4    4    2
 0.00873764054933707    7    4    4    3