 &FCI NORB=   6,NELEC=10,MS2=0,
  ORBSYM=1,1,1,1,1,1,
  ISYM=1,
 &END
 5.363704408853975    1    1    1    1
 -0.5153117650369817    1    1    2    1
 1.2193927733791    1    1    2    2
 -0.1266873500086146    1    1    3    1
 0.1349268084477784    1    1    3    2
 0.9350991410047576    1    1    3    3
 1.264018248869991    1    1    4    4
 1.26401824886999    1    1    5    5
 0.1324714281652969    1    1    6    1
 -0.1932157287420796    1    1    6    2
 0.3944011571093166    1    1    6    3
 0.8615085045930568    1    1    6    6
 -0.5153117650369815    2    1    1    1
 0.07811900594191792    2    1    2    1
 -0.02166071194886991    2    1    2    2
 0.01820364386718411    2    1    3    1
 -0.006579968991135207    2    1    3    2
 -0.009380597526729149    2    1    3    3
 -0.01483047664908656    2    1    4    4
 -0.01483047664908655    2    1    5    5
 -0.02132361161579197    2    1    6    1
 0.00472334852748404    2    1    6    2
 -0.006719032285895053    2    1    6    3
 -0.009097216582033293    2    1    6    6
 1.2193927733791    2    2    1    1
 -0.02166071194887    2    2    2    1
 0.8635965045011584    2    2    2    2
 -0.009171494802761262    2    2    3    1
 0.03880704851317648    2    2    3    2
 0.7213451996795572    2    2    3    3
 0.8879512887659765    2    2    4    4
 0.8879512887659758    2    2    5    5
 0.001998802075839328    2    2    6    1
 -0.105515543288843    2    2    6    2
 0.2068300063936732    2    2    6    3
 0.6578210053404266    2    2    6    6
 -0.1266873500086146    3    1    1    1
 0.01820364386718413    3    1    2    1
 -0.009171494802761223    3    1    2    2
 0.01950347661565314    3    1    3    1
 0.02073465712696083    3    1    3    2
 0.003357730022265755    3    1    3    3
 -0.0037113119599982    3    1    4    4
 -0.003711311959998197    3    1    5    5
 0.01085145229908267    3    1    6    1
 0.02004486819385276    3    1    6    2
 0.001775849475754588    3    1    6    3
 -0.01261222334194922    3    1    6    6
 0.1349268084477784    3    2    1    1
 -0.006579968991135231    3    2    2    1
 0.03880704851317644    3    2    2    2
 0.02073465712696083    3    2    3    1
 0.1468010447851532    3    2    3    2
 0.02722812253638998    3    2    3    3
 0.07347112862148544    3    2    4    4
 0.07347112862148539    3    2    5    5
 0.02417425655600236    3    2    6    1
 0.06464396394003556    3    2    6    2
 0.08972225920943686    3    2    6    3
 -0.05686418318025139    3    2    6    6
 0.9350991410047577    3    3    1    1
 -0.009380597526729196    3    3    2    1
 0.7213451996795572    3    3    2    2
 0.00335773002226574    3    3    3    1
 0.02722812253638999    3    3    3    2
 0.7129548508664985    3    3    3    3
 0.711169842440924    3    3    4    4
 0.7111698424409234    3    3    5    5
 0.008308420337725124    3    3    6    1
 -0.02699437179181523    3    3    6    2
 0.1059760085522454    3    3    6    3
 0.6612091250139432    3    3    6    6
 0.02956154061673402    4    1    4    1
 0.03971109784432757    4    1    4    2
 0.008918538463682438    4    1    4    3
 -0.008600072475852641    4    1    6    4
 0.03971109784432757    4    2    4    1
 0.1860668394318979    4    2    4    2
 0.0346779351568863    4    2    4    3
 -0.03470594235015912    4    2    6    4
 0.00891853846368244    4    3    4    1
 0.03467793515688631    4    3    4    2
 0.04022445521784301    4    3    4    3
 0.01939549460174509    4    3    6    4
 1.264018248869991    4    4    1    1
 -0.01483047664908655    4    4    2    1
 0.8879512887659766    4    4    2    2
 -0.003711311959998202    4    4    3    1
 0.07347112862148546    4    4    3    2
 0.7111698424409241    4    4    3    3
 0.997513625929656    4    4    4    4
 0.8899728857331789    4    4    5    5
 0.003754005451237482    4    4    6    1
 -0.1035540702496159    4    4    6    2
 0.2248052729145225    4    4    6    3
 0.6372306455086419    4    4    6    6
 0.02956154061673399    5    1    5    1
 0.03971109784432755    5    1    5    2
 0.008918538463682435    5    1    5    3
 -0.008600072475852632    5    1    6    5
 0.03971109784432755    5    2    5    1
 0.1860668394318978    5    2    5    2
 0.03467793515688628    5    2    5    3
 -0.03470594235015908    5    2    6    5
 0.008918538463682435    5    3    5    1
 0.03467793515688627    5    3    5    2
 0.04022445521784298    5    3    5    3
 0.01939549460174509    5    3    6    5
 0.05377037009823832    5    4    5    4
 1.26401824886999    5    5    1    1
 -0.01483047664908661    5    5    2    1
 0.8879512887659758    5    5    2    2
 -0.003711311959998226    5    5    3    1
 0.07347112862148536    5    5    3    2
 0.7111698424409235    5    5    3    3
 0.8899728857331789    5    5    4    4
 0.9975136259296546    5    5    5    5
 0.003754005451237522    5    5    6    1
 -0.1035540702496158    5    5    6    2
 0.2248052729145223    5    5    6    3
 0.6372306455086415    5    5    6    6
 0.1324714281652969    6    1    1    1
 -0.02132361161579195    6    1    2    1
 0.001998802075839303    6    1    2    2
 0.01085145229908268    6    1    3    1
 0.02417425655600236    6    1    3    2
 0.008308420337725109    6    1    3    3
 0.0037540054512375    6    1    4    4
 0.003754005451237497    6    1    5    5
 0.02223838606717462    6    1    6    1
 0.0177614537729944    6    1    6    2
 0.005635537151430842    6    1    6    3
 -0.008458955863826806    6    1    6    6
 -0.1932157287420795    6    2    1    1
 0.004723348527484053    6    2    2    1
 -0.105515543288843    6    2    2    2
 0.02004486819385276    6    2    3    1
 0.06464396394003552    6    2    3    2
 -0.02699437179181526    6    2    3    3
 -0.1035540702496159    6    2    4    4
 -0.1035540702496159    6    2    5    5
 0.0177614537729944    6    2    6    1
 0.09292910813824563    6    2    6    2
 -0.04619817394266837    6    2    6    3
 -0.06028541186553509    6    2    6    6
 0.3944011571093167    6    3    1    1
 -0.006719032285895037    6    3    2    1
 0.2068300063936733    6    3    2    2
 0.001775849475754592    6    3    3    1
 0.08972225920943683    6    3    3    2
 0.1059760085522454    6    3    3    3
 0.2248052729145224    6    3    4    4
 0.2248052729145222    6    3    5    5
 0.005635537151430848    6    3    6    1
 -0.04619817394266836    6    3    6    2
 0.2083314462722856    6    3    6    3
 0.02095792088878215    6    3    6    6
 -0.008600072475852641    6    4    4    1
 -0.03470594235015911    6    4    4    2
 0.0193954946017451    6    4    4    3
 0.03011654313794538    6    4    6    4
 -0.008600072475852632    6    5    5    1
 -0.03470594235015909    6    5    5    2
 0.01939549460174508    6    5    5    3
 0.03011654313794536    6    5    6    5
 0.8615085045930568    6    6    1    1
 -0.009097216582033267    6    6    2    1
 0.6578210053404266    6    6    2    2
 -0.01261222334194923    6    6    3    1
 -0.05686418318025135    6    6    3    2
 0.661209125013943    6    6    3    3
 0.6372306455086418    6    6    4    4
 0.6372306455086414    6    6    5    5
 -0.008458955863826809    6    6    6    1
 -0.06028541186553504    6    6    6    2
 0.02095792088878225    6    6    6    3
 0.694682107100464    6    6    6    6
 -40.48843227143158    1    1  0  0
 0.7152124319633244    2    1  0  0
 -9.129824239642518    2    2  0  0
 0.1677749653915342    3    1  0  0
 -0.5422137904025421    3    2  0  0
 -7.152237003632857    3    3  0  0
 1.284007848577969e-15    4    3  0  0
 -8.656168516126955    4    4  0  0
 -1.306894893495392e-15    5    3  0  0
 -8.656168516126948    5    5  0  0
 -0.1788028419479696    6    1  0  0
 0.9591387888831355    6    2  0  0
 -2.093373021502158    6    3  0  0
 -2.297821064241658e-15    6    4  0  0
 1.640451662439531e-15    6    5  0  0
 -6.06540166891617    6    6  0  0
 4.32963172570909  0  0  0  0
